LAMMPS data file. CGCMM style. atom_style full generated by VMD/TopoTools v1.7 on Sat Aug 27 22:01:15 -0300 2022
 7872 atoms
 11671 bonds
 23070 angles
 45693 dihedrals
 7600 impropers
 1 atom types
 1 bond types
 1 angle types
 1 dihedral types
 1 improper types
 -77.615820 122.384180  xlo xhi
 -100.000000 100.000000  ylo yhi
 -77.605263 122.394737  zlo zhi

# Pair Coeffs
#
# 1  C

# Bond Coeffs
#
# 1  C-C

# Angle Coeffs
#
# 1  C-C-C

# Dihedral Coeffs
#
# 1  C-C-C-C

# Improper Coeffs
#
# 1  C-C-C-C

 Masses

 1 12.010700 # C

 Atoms # full

1 1 1 0.000000 78.004181 -48.507000 -18.981260 # C GRA
2 2 1 0.000000 77.327179 -49.735001 -19.190260 # C GRA
3 3 1 0.000000 75.972183 -49.735001 -19.607260 # C GRA
4 4 1 0.000000 75.294182 -48.507000 -19.815260 # C GRA
5 5 1 0.000000 78.004181 -46.050999 -18.981260 # C GRA
6 6 1 0.000000 77.327179 -47.278999 -19.190260 # C GRA
7 7 1 0.000000 75.972183 -47.278999 -19.607260 # C GRA
8 8 1 0.000000 75.294182 -46.050999 -19.815260 # C GRA
9 9 1 0.000000 78.004181 -43.595001 -18.981260 # C GRA
10 10 1 0.000000 77.327179 -44.823002 -19.190260 # C GRA
11 11 1 0.000000 75.972183 -44.823002 -19.607260 # C GRA
12 12 1 0.000000 75.294182 -43.595001 -19.815260 # C GRA
13 13 1 0.000000 78.004181 -41.139000 -18.981260 # C GRA
14 14 1 0.000000 77.327179 -42.367001 -19.190260 # C GRA
15 15 1 0.000000 75.972183 -42.367001 -19.607260 # C GRA
16 16 1 0.000000 75.294182 -41.139000 -19.815260 # C GRA
17 17 1 0.000000 78.004181 -38.682999 -18.981260 # C GRA
18 18 1 0.000000 77.327179 -39.910999 -19.190260 # C GRA
19 19 1 0.000000 75.972183 -39.910999 -19.607260 # C GRA
20 20 1 0.000000 75.294182 -38.682999 -19.815260 # C GRA
21 21 1 0.000000 78.004181 -36.227001 -18.981260 # C GRA
22 22 1 0.000000 77.327179 -37.455002 -19.190260 # C GRA
23 23 1 0.000000 75.972183 -37.455002 -19.607260 # C GRA
24 24 1 0.000000 75.294182 -36.227001 -19.815260 # C GRA
25 25 1 0.000000 78.004181 -33.771000 -18.981260 # C GRA
26 26 1 0.000000 77.327179 -34.999001 -19.190260 # C GRA
27 27 1 0.000000 75.972183 -34.999001 -19.607260 # C GRA
28 28 1 0.000000 75.294182 -33.771000 -19.815260 # C GRA
29 29 1 0.000000 78.004181 -31.315001 -18.981260 # C GRA
30 30 1 0.000000 77.327179 -32.542999 -19.190260 # C GRA
31 31 1 0.000000 75.972183 -32.542999 -19.607260 # C GRA
32 32 1 0.000000 75.294182 -31.315001 -19.815260 # C GRA
33 33 1 0.000000 78.004181 -28.858999 -18.981260 # C GRA
34 34 1 0.000000 77.327179 -30.087000 -19.190260 # C GRA
35 35 1 0.000000 75.972183 -30.087000 -19.607260 # C GRA
36 36 1 0.000000 75.294182 -28.858999 -19.815260 # C GRA
37 37 1 0.000000 78.004181 -26.403000 -18.981260 # C GRA
38 38 1 0.000000 77.327179 -27.631001 -19.190260 # C GRA
39 39 1 0.000000 75.972183 -27.631001 -19.607260 # C GRA
40 40 1 0.000000 75.294182 -26.403000 -19.815260 # C GRA
41 41 1 0.000000 78.004181 -23.945999 -18.981260 # C GRA
42 42 1 0.000000 77.327179 -25.174000 -19.190260 # C GRA
43 43 1 0.000000 75.972183 -25.174000 -19.607260 # C GRA
44 44 1 0.000000 75.294182 -23.945999 -19.815260 # C GRA
45 45 1 0.000000 78.004181 -21.490000 -18.981260 # C GRA
46 46 1 0.000000 77.327179 -22.718000 -19.190260 # C GRA
47 47 1 0.000000 75.972183 -22.718000 -19.607260 # C GRA
48 48 1 0.000000 75.294182 -21.490000 -19.815260 # C GRA
49 49 1 0.000000 78.004181 -19.034000 -18.981260 # C GRA
50 50 1 0.000000 77.327179 -20.261999 -19.190260 # C GRA
51 51 1 0.000000 75.972183 -20.261999 -19.607260 # C GRA
52 52 1 0.000000 75.294182 -19.034000 -19.815260 # C GRA
53 53 1 0.000000 78.004181 -16.577999 -18.981260 # C GRA
54 54 1 0.000000 77.327179 -17.806000 -19.190260 # C GRA
55 55 1 0.000000 75.972183 -17.806000 -19.607260 # C GRA
56 56 1 0.000000 75.294182 -16.577999 -19.815260 # C GRA
57 57 1 0.000000 78.004181 -14.122000 -18.981260 # C GRA
58 58 1 0.000000 77.327179 -15.350000 -19.190260 # C GRA
59 59 1 0.000000 75.972183 -15.350000 -19.607260 # C GRA
60 60 1 0.000000 75.294182 -14.122000 -19.815260 # C GRA
61 61 1 0.000000 78.004181 -11.666000 -18.981260 # C GRA
62 62 1 0.000000 77.327179 -12.894000 -19.190260 # C GRA
63 63 1 0.000000 75.972183 -12.894000 -19.607260 # C GRA
64 64 1 0.000000 75.294182 -11.666000 -19.815260 # C GRA
65 65 1 0.000000 78.004181 -9.210000 -18.981260 # C GRA
66 66 1 0.000000 77.327179 -10.438000 -19.190260 # C GRA
67 67 1 0.000000 75.972183 -10.438000 -19.607260 # C GRA
68 68 1 0.000000 75.294182 -9.210000 -19.815260 # C GRA
69 69 1 0.000000 78.004181 -6.754000 -18.981260 # C GRA
70 70 1 0.000000 77.327179 -7.982000 -19.190260 # C GRA
71 71 1 0.000000 75.972183 -7.982000 -19.607260 # C GRA
72 72 1 0.000000 75.294182 -6.754000 -19.815260 # C GRA
73 73 1 0.000000 78.004181 -4.298000 -18.981260 # C GRA
74 74 1 0.000000 77.327179 -5.526000 -19.190260 # C GRA
75 75 1 0.000000 75.972183 -5.526000 -19.607260 # C GRA
76 76 1 0.000000 75.294182 -4.298000 -19.815260 # C GRA
77 77 1 0.000000 78.004181 -1.842000 -18.981260 # C GRA
78 78 1 0.000000 77.327179 -3.070000 -19.190260 # C GRA
79 79 1 0.000000 75.972183 -3.070000 -19.607260 # C GRA
80 80 1 0.000000 75.294182 -1.842000 -19.815260 # C GRA
81 81 1 0.000000 78.004181 0.614000 -18.981260 # C GRA
82 82 1 0.000000 77.327179 -0.614000 -19.190260 # C GRA
83 83 1 0.000000 75.972183 -0.614000 -19.607260 # C GRA
84 84 1 0.000000 75.294182 0.614000 -19.815260 # C GRA
85 85 1 0.000000 78.004181 3.070000 -18.981260 # C GRA
86 86 1 0.000000 77.327179 1.842000 -19.190260 # C GRA
87 87 1 0.000000 75.972183 1.842000 -19.607260 # C GRA
88 88 1 0.000000 75.294182 3.070000 -19.815260 # C GRA
89 89 1 0.000000 78.004181 5.526000 -18.981260 # C GRA
90 90 1 0.000000 77.327179 4.298000 -19.190260 # C GRA
91 91 1 0.000000 75.972183 4.298000 -19.607260 # C GRA
92 92 1 0.000000 75.294182 5.526000 -19.815260 # C GRA
93 93 1 0.000000 78.004181 7.982000 -18.981260 # C GRA
94 94 1 0.000000 77.327179 6.754000 -19.190260 # C GRA
95 95 1 0.000000 75.972183 6.754000 -19.607260 # C GRA
96 96 1 0.000000 75.294182 7.982000 -19.815260 # C GRA
97 97 1 0.000000 78.004181 10.438000 -18.981260 # C GRA
98 98 1 0.000000 77.327179 9.210000 -19.190260 # C GRA
99 99 1 0.000000 75.972183 9.210000 -19.607260 # C GRA
100 100 1 0.000000 75.294182 10.438000 -19.815260 # C GRA
101 101 1 0.000000 78.004181 12.894000 -18.981260 # C GRA
102 102 1 0.000000 77.327179 11.666000 -19.190260 # C GRA
103 103 1 0.000000 75.972183 11.666000 -19.607260 # C GRA
104 104 1 0.000000 75.294182 12.894000 -19.815260 # C GRA
105 105 1 0.000000 78.004181 15.350000 -18.981260 # C GRA
106 106 1 0.000000 77.327179 14.122000 -19.190260 # C GRA
107 107 1 0.000000 75.972183 14.122000 -19.607260 # C GRA
108 108 1 0.000000 75.294182 15.350000 -19.815260 # C GRA
109 109 1 0.000000 78.004181 17.806000 -18.981260 # C GRA
110 110 1 0.000000 77.327179 16.577999 -19.190260 # C GRA
111 111 1 0.000000 75.972183 16.577999 -19.607260 # C GRA
112 112 1 0.000000 75.294182 17.806000 -19.815260 # C GRA
113 113 1 0.000000 78.004181 20.261999 -18.981260 # C GRA
114 114 1 0.000000 77.327179 19.034000 -19.190260 # C GRA
115 115 1 0.000000 75.972183 19.034000 -19.607260 # C GRA
116 116 1 0.000000 75.294182 20.261999 -19.815260 # C GRA
117 117 1 0.000000 78.004181 22.718000 -18.981260 # C GRA
118 118 1 0.000000 77.327179 21.490000 -19.190260 # C GRA
119 119 1 0.000000 75.972183 21.490000 -19.607260 # C GRA
120 120 1 0.000000 75.294182 22.718000 -19.815260 # C GRA
121 121 1 0.000000 78.004181 25.174000 -18.981260 # C GRA
122 122 1 0.000000 77.327179 23.945999 -19.190260 # C GRA
123 123 1 0.000000 75.972183 23.945999 -19.607260 # C GRA
124 124 1 0.000000 75.294182 25.174000 -19.815260 # C GRA
125 125 1 0.000000 78.004181 27.631001 -18.981260 # C GRA
126 126 1 0.000000 77.327179 26.403000 -19.190260 # C GRA
127 127 1 0.000000 75.972183 26.403000 -19.607260 # C GRA
128 128 1 0.000000 75.294182 27.631001 -19.815260 # C GRA
129 129 1 0.000000 78.004181 30.087000 -18.981260 # C GRA
130 130 1 0.000000 77.327179 28.858999 -19.190260 # C GRA
131 131 1 0.000000 75.972183 28.858999 -19.607260 # C GRA
132 132 1 0.000000 75.294182 30.087000 -19.815260 # C GRA
133 133 1 0.000000 78.004181 32.542999 -18.981260 # C GRA
134 134 1 0.000000 77.327179 31.315001 -19.190260 # C GRA
135 135 1 0.000000 75.972183 31.315001 -19.607260 # C GRA
136 136 1 0.000000 75.294182 32.542999 -19.815260 # C GRA
137 137 1 0.000000 78.004181 34.999001 -18.981260 # C GRA
138 138 1 0.000000 77.327179 33.771000 -19.190260 # C GRA
139 139 1 0.000000 75.972183 33.771000 -19.607260 # C GRA
140 140 1 0.000000 75.294182 34.999001 -19.815260 # C GRA
141 141 1 0.000000 78.004181 37.455002 -18.981260 # C GRA
142 142 1 0.000000 77.327179 36.227001 -19.190260 # C GRA
143 143 1 0.000000 75.972183 36.227001 -19.607260 # C GRA
144 144 1 0.000000 75.294182 37.455002 -19.815260 # C GRA
145 145 1 0.000000 78.004181 39.910999 -18.981260 # C GRA
146 146 1 0.000000 77.327179 38.682999 -19.190260 # C GRA
147 147 1 0.000000 75.972183 38.682999 -19.607260 # C GRA
148 148 1 0.000000 75.294182 39.910999 -19.815260 # C GRA
149 149 1 0.000000 78.004181 42.367001 -18.981260 # C GRA
150 150 1 0.000000 77.327179 41.139000 -19.190260 # C GRA
151 151 1 0.000000 75.972183 41.139000 -19.607260 # C GRA
152 152 1 0.000000 75.294182 42.367001 -19.815260 # C GRA
153 153 1 0.000000 78.004181 44.823002 -18.981260 # C GRA
154 154 1 0.000000 77.327179 43.595001 -19.190260 # C GRA
155 155 1 0.000000 75.972183 43.595001 -19.607260 # C GRA
156 156 1 0.000000 75.294182 44.823002 -19.815260 # C GRA
157 157 1 0.000000 78.004181 47.278999 -18.981260 # C GRA
158 158 1 0.000000 77.327179 46.050999 -19.190260 # C GRA
159 159 1 0.000000 75.972183 46.050999 -19.607260 # C GRA
160 160 1 0.000000 75.294182 47.278999 -19.815260 # C GRA
161 161 1 0.000000 78.004181 49.735001 -18.981260 # C GRA
162 162 1 0.000000 77.327179 48.507000 -19.190260 # C GRA
163 163 1 0.000000 75.972183 48.507000 -19.607260 # C GRA
164 164 1 0.000000 75.294182 49.735001 -19.815260 # C GRA
165 165 1 0.000000 73.938179 -48.507000 -20.231260 # C GRA
166 166 1 0.000000 73.260185 -49.735001 -20.437260 # C GRA
167 167 1 0.000000 71.903183 -49.735001 -20.849260 # C GRA
168 168 1 0.000000 71.224182 -48.507000 -21.053261 # C GRA
169 169 1 0.000000 73.938179 -46.050999 -20.231260 # C GRA
170 170 1 0.000000 73.260185 -47.278999 -20.437260 # C GRA
171 171 1 0.000000 71.903183 -47.278999 -20.849260 # C GRA
172 172 1 0.000000 71.224182 -46.050999 -21.053261 # C GRA
173 173 1 0.000000 73.938179 -43.595001 -20.231260 # C GRA
174 174 1 0.000000 73.260185 -44.823002 -20.437260 # C GRA
175 175 1 0.000000 71.903183 -44.823002 -20.849260 # C GRA
176 176 1 0.000000 71.224182 -43.595001 -21.053261 # C GRA
177 177 1 0.000000 73.938179 -41.139000 -20.231260 # C GRA
178 178 1 0.000000 73.260185 -42.367001 -20.437260 # C GRA
179 179 1 0.000000 71.903183 -42.367001 -20.849260 # C GRA
180 180 1 0.000000 71.224182 -41.139000 -21.053261 # C GRA
181 181 1 0.000000 73.938179 -38.682999 -20.231260 # C GRA
182 182 1 0.000000 73.260185 -39.910999 -20.437260 # C GRA
183 183 1 0.000000 71.903183 -39.910999 -20.849260 # C GRA
184 184 1 0.000000 71.224182 -38.682999 -21.053261 # C GRA
185 185 1 0.000000 73.938179 -36.227001 -20.231260 # C GRA
186 186 1 0.000000 73.260185 -37.455002 -20.437260 # C GRA
187 187 1 0.000000 71.903183 -37.455002 -20.849260 # C GRA
188 188 1 0.000000 71.224182 -36.227001 -21.053261 # C GRA
189 189 1 0.000000 73.938179 -33.771000 -20.231260 # C GRA
190 190 1 0.000000 73.260185 -34.999001 -20.437260 # C GRA
191 191 1 0.000000 71.903183 -34.999001 -20.849260 # C GRA
192 192 1 0.000000 71.224182 -33.771000 -21.053261 # C GRA
193 193 1 0.000000 73.938179 -31.315001 -20.231260 # C GRA
194 194 1 0.000000 73.260185 -32.542999 -20.437260 # C GRA
195 195 1 0.000000 71.903183 -32.542999 -20.849260 # C GRA
196 196 1 0.000000 71.224182 -31.315001 -21.053261 # C GRA
197 197 1 0.000000 73.938179 -28.858999 -20.231260 # C GRA
198 198 1 0.000000 73.260185 -30.087000 -20.437260 # C GRA
199 199 1 0.000000 71.903183 -30.087000 -20.849260 # C GRA
200 200 1 0.000000 71.224182 -28.858999 -21.053261 # C GRA
201 201 1 0.000000 73.938179 -26.403000 -20.231260 # C GRA
202 202 1 0.000000 73.260185 -27.631001 -20.437260 # C GRA
203 203 1 0.000000 71.903183 -27.631001 -20.849260 # C GRA
204 204 1 0.000000 71.224182 -26.403000 -21.053261 # C GRA
205 205 1 0.000000 73.938179 -23.945999 -20.231260 # C GRA
206 206 1 0.000000 73.260185 -25.174000 -20.437260 # C GRA
207 207 1 0.000000 71.903183 -25.174000 -20.849260 # C GRA
208 208 1 0.000000 71.224182 -23.945999 -21.053261 # C GRA
209 209 1 0.000000 73.938179 -21.490000 -20.231260 # C GRA
210 210 1 0.000000 73.260185 -22.718000 -20.437260 # C GRA
211 211 1 0.000000 71.903183 -22.718000 -20.849260 # C GRA
212 212 1 0.000000 71.224182 -21.490000 -21.053261 # C GRA
213 213 1 0.000000 73.938179 -19.034000 -20.231260 # C GRA
214 214 1 0.000000 73.260185 -20.261999 -20.437260 # C GRA
215 215 1 0.000000 71.903183 -20.261999 -20.849260 # C GRA
216 216 1 0.000000 71.224182 -19.034000 -21.053261 # C GRA
217 217 1 0.000000 73.938179 -16.577999 -20.231260 # C GRA
218 218 1 0.000000 73.260185 -17.806000 -20.437260 # C GRA
219 219 1 0.000000 71.903183 -17.806000 -20.849260 # C GRA
220 220 1 0.000000 71.224182 -16.577999 -21.053261 # C GRA
221 221 1 0.000000 73.938179 -14.122000 -20.231260 # C GRA
222 222 1 0.000000 73.260185 -15.350000 -20.437260 # C GRA
223 223 1 0.000000 71.903183 -15.350000 -20.849260 # C GRA
224 224 1 0.000000 71.224182 -14.122000 -21.053261 # C GRA
225 225 1 0.000000 73.938179 -11.666000 -20.231260 # C GRA
226 226 1 0.000000 73.260185 -12.894000 -20.437260 # C GRA
227 227 1 0.000000 71.903183 -12.894000 -20.849260 # C GRA
228 228 1 0.000000 71.224182 -11.666000 -21.053261 # C GRA
229 229 1 0.000000 73.938179 -9.210000 -20.231260 # C GRA
230 230 1 0.000000 73.260185 -10.438000 -20.437260 # C GRA
231 231 1 0.000000 71.903183 -10.438000 -20.849260 # C GRA
232 232 1 0.000000 71.224182 -9.210000 -21.053261 # C GRA
233 233 1 0.000000 73.938179 -6.754000 -20.231260 # C GRA
234 234 1 0.000000 73.260185 -7.982000 -20.437260 # C GRA
235 235 1 0.000000 71.903183 -7.982000 -20.849260 # C GRA
236 236 1 0.000000 71.224182 -6.754000 -21.053261 # C GRA
237 237 1 0.000000 73.938179 -4.298000 -20.231260 # C GRA
238 238 1 0.000000 73.260185 -5.526000 -20.437260 # C GRA
239 239 1 0.000000 71.903183 -5.526000 -20.849260 # C GRA
240 240 1 0.000000 71.224182 -4.298000 -21.053261 # C GRA
241 241 1 0.000000 73.938179 -1.842000 -20.231260 # C GRA
242 242 1 0.000000 73.260185 -3.070000 -20.437260 # C GRA
243 243 1 0.000000 71.903183 -3.070000 -20.849260 # C GRA
244 244 1 0.000000 71.224182 -1.842000 -21.053261 # C GRA
245 245 1 0.000000 73.938179 0.614000 -20.231260 # C GRA
246 246 1 0.000000 73.260185 -0.614000 -20.437260 # C GRA
247 247 1 0.000000 71.903183 -0.614000 -20.849260 # C GRA
248 248 1 0.000000 71.224182 0.614000 -21.053261 # C GRA
249 249 1 0.000000 73.938179 3.070000 -20.231260 # C GRA
250 250 1 0.000000 73.260185 1.842000 -20.437260 # C GRA
251 251 1 0.000000 71.903183 1.842000 -20.849260 # C GRA
252 252 1 0.000000 71.224182 3.070000 -21.053261 # C GRA
253 253 1 0.000000 73.938179 5.526000 -20.231260 # C GRA
254 254 1 0.000000 73.260185 4.298000 -20.437260 # C GRA
255 255 1 0.000000 71.903183 4.298000 -20.849260 # C GRA
256 256 1 0.000000 71.224182 5.526000 -21.053261 # C GRA
257 257 1 0.000000 73.938179 7.982000 -20.231260 # C GRA
258 258 1 0.000000 73.260185 6.754000 -20.437260 # C GRA
259 259 1 0.000000 71.903183 6.754000 -20.849260 # C GRA
260 260 1 0.000000 71.224182 7.982000 -21.053261 # C GRA
261 261 1 0.000000 73.938179 10.438000 -20.231260 # C GRA
262 262 1 0.000000 73.260185 9.210000 -20.437260 # C GRA
263 263 1 0.000000 71.903183 9.210000 -20.849260 # C GRA
264 264 1 0.000000 71.224182 10.438000 -21.053261 # C GRA
265 265 1 0.000000 73.938179 12.894000 -20.231260 # C GRA
266 266 1 0.000000 73.260185 11.666000 -20.437260 # C GRA
267 267 1 0.000000 71.903183 11.666000 -20.849260 # C GRA
268 268 1 0.000000 71.224182 12.894000 -21.053261 # C GRA
269 269 1 0.000000 73.938179 15.350000 -20.231260 # C GRA
270 270 1 0.000000 73.260185 14.122000 -20.437260 # C GRA
271 271 1 0.000000 71.903183 14.122000 -20.849260 # C GRA
272 272 1 0.000000 71.224182 15.350000 -21.053261 # C GRA
273 273 1 0.000000 73.938179 17.806000 -20.231260 # C GRA
274 274 1 0.000000 73.260185 16.577999 -20.437260 # C GRA
275 275 1 0.000000 71.903183 16.577999 -20.849260 # C GRA
276 276 1 0.000000 71.224182 17.806000 -21.053261 # C GRA
277 277 1 0.000000 73.938179 20.261999 -20.231260 # C GRA
278 278 1 0.000000 73.260185 19.034000 -20.437260 # C GRA
279 279 1 0.000000 71.903183 19.034000 -20.849260 # C GRA
280 280 1 0.000000 71.224182 20.261999 -21.053261 # C GRA
281 281 1 0.000000 73.938179 22.718000 -20.231260 # C GRA
282 282 1 0.000000 73.260185 21.490000 -20.437260 # C GRA
283 283 1 0.000000 71.903183 21.490000 -20.849260 # C GRA
284 284 1 0.000000 71.224182 22.718000 -21.053261 # C GRA
285 285 1 0.000000 73.938179 25.174000 -20.231260 # C GRA
286 286 1 0.000000 73.260185 23.945999 -20.437260 # C GRA
287 287 1 0.000000 71.903183 23.945999 -20.849260 # C GRA
288 288 1 0.000000 71.224182 25.174000 -21.053261 # C GRA
289 289 1 0.000000 73.938179 27.631001 -20.231260 # C GRA
290 290 1 0.000000 73.260185 26.403000 -20.437260 # C GRA
291 291 1 0.000000 71.903183 26.403000 -20.849260 # C GRA
292 292 1 0.000000 71.224182 27.631001 -21.053261 # C GRA
293 293 1 0.000000 73.938179 30.087000 -20.231260 # C GRA
294 294 1 0.000000 73.260185 28.858999 -20.437260 # C GRA
295 295 1 0.000000 71.903183 28.858999 -20.849260 # C GRA
296 296 1 0.000000 71.224182 30.087000 -21.053261 # C GRA
297 297 1 0.000000 73.938179 32.542999 -20.231260 # C GRA
298 298 1 0.000000 73.260185 31.315001 -20.437260 # C GRA
299 299 1 0.000000 71.903183 31.315001 -20.849260 # C GRA
300 300 1 0.000000 71.224182 32.542999 -21.053261 # C GRA
301 301 1 0.000000 73.938179 34.999001 -20.231260 # C GRA
302 302 1 0.000000 73.260185 33.771000 -20.437260 # C GRA
303 303 1 0.000000 71.903183 33.771000 -20.849260 # C GRA
304 304 1 0.000000 71.224182 34.999001 -21.053261 # C GRA
305 305 1 0.000000 73.938179 37.455002 -20.231260 # C GRA
306 306 1 0.000000 73.260185 36.227001 -20.437260 # C GRA
307 307 1 0.000000 71.903183 36.227001 -20.849260 # C GRA
308 308 1 0.000000 71.224182 37.455002 -21.053261 # C GRA
309 309 1 0.000000 73.938179 39.910999 -20.231260 # C GRA
310 310 1 0.000000 73.260185 38.682999 -20.437260 # C GRA
311 311 1 0.000000 71.903183 38.682999 -20.849260 # C GRA
312 312 1 0.000000 71.224182 39.910999 -21.053261 # C GRA
313 313 1 0.000000 73.938179 42.367001 -20.231260 # C GRA
314 314 1 0.000000 73.260185 41.139000 -20.437260 # C GRA
315 315 1 0.000000 71.903183 41.139000 -20.849260 # C GRA
316 316 1 0.000000 71.224182 42.367001 -21.053261 # C GRA
317 317 1 0.000000 73.938179 44.823002 -20.231260 # C GRA
318 318 1 0.000000 73.260185 43.595001 -20.437260 # C GRA
319 319 1 0.000000 71.903183 43.595001 -20.849260 # C GRA
320 320 1 0.000000 71.224182 44.823002 -21.053261 # C GRA
321 321 1 0.000000 73.938179 47.278999 -20.231260 # C GRA
322 322 1 0.000000 73.260185 46.050999 -20.437260 # C GRA
323 323 1 0.000000 71.903183 46.050999 -20.849260 # C GRA
324 324 1 0.000000 71.224182 47.278999 -21.053261 # C GRA
325 325 1 0.000000 73.938179 49.735001 -20.231260 # C GRA
326 326 1 0.000000 73.260185 48.507000 -20.437260 # C GRA
327 327 1 0.000000 71.903183 48.507000 -20.849260 # C GRA
328 328 1 0.000000 71.224182 49.735001 -21.053261 # C GRA
329 329 1 0.000000 69.866180 -48.507000 -21.461260 # C GRA
330 330 1 0.000000 69.186180 -49.735001 -21.663260 # C GRA
331 331 1 0.000000 67.826180 -49.735001 -22.065260 # C GRA
332 332 1 0.000000 67.146179 -48.507000 -22.264259 # C GRA
333 333 1 0.000000 69.866180 -46.050999 -21.461260 # C GRA
334 334 1 0.000000 69.186180 -47.278999 -21.663260 # C GRA
335 335 1 0.000000 67.826180 -47.278999 -22.065260 # C GRA
336 336 1 0.000000 67.146179 -46.050999 -22.264259 # C GRA
337 337 1 0.000000 69.866180 -43.595001 -21.461260 # C GRA
338 338 1 0.000000 69.186180 -44.823002 -21.663260 # C GRA
339 339 1 0.000000 67.826180 -44.823002 -22.065260 # C GRA
340 340 1 0.000000 67.146179 -43.595001 -22.264259 # C GRA
341 341 1 0.000000 69.866180 -41.139000 -21.461260 # C GRA
342 342 1 0.000000 69.186180 -42.367001 -21.663260 # C GRA
343 343 1 0.000000 67.826180 -42.367001 -22.065260 # C GRA
344 344 1 0.000000 67.146179 -41.139000 -22.264259 # C GRA
345 345 1 0.000000 69.866180 -38.682999 -21.461260 # C GRA
346 346 1 0.000000 69.186180 -39.910999 -21.663260 # C GRA
347 347 1 0.000000 67.826180 -39.910999 -22.065260 # C GRA
348 348 1 0.000000 67.146179 -38.682999 -22.264259 # C GRA
349 349 1 0.000000 69.866180 -36.227001 -21.461260 # C GRA
350 350 1 0.000000 69.186180 -37.455002 -21.663260 # C GRA
351 351 1 0.000000 67.826180 -37.455002 -22.065260 # C GRA
352 352 1 0.000000 67.146179 -36.227001 -22.264259 # C GRA
353 353 1 0.000000 69.866180 -33.771000 -21.461260 # C GRA
354 354 1 0.000000 69.186180 -34.999001 -21.663260 # C GRA
355 355 1 0.000000 67.826180 -34.999001 -22.065260 # C GRA
356 356 1 0.000000 67.146179 -33.771000 -22.264259 # C GRA
357 357 1 0.000000 69.866180 -31.315001 -21.461260 # C GRA
358 358 1 0.000000 69.186180 -32.542999 -21.663260 # C GRA
359 359 1 0.000000 67.826180 -32.542999 -22.065260 # C GRA
360 360 1 0.000000 67.146179 -31.315001 -22.264259 # C GRA
361 361 1 0.000000 69.866180 -28.858999 -21.461260 # C GRA
362 362 1 0.000000 69.186180 -30.087000 -21.663260 # C GRA
363 363 1 0.000000 67.826180 -30.087000 -22.065260 # C GRA
364 364 1 0.000000 67.146179 -28.858999 -22.264259 # C GRA
365 365 1 0.000000 69.866180 -26.403000 -21.461260 # C GRA
366 366 1 0.000000 69.186180 -27.631001 -21.663260 # C GRA
367 367 1 0.000000 67.826180 -27.631001 -22.065260 # C GRA
368 368 1 0.000000 67.146179 -26.403000 -22.264259 # C GRA
369 369 1 0.000000 69.866180 -23.945999 -21.461260 # C GRA
370 370 1 0.000000 69.186180 -25.174000 -21.663260 # C GRA
371 371 1 0.000000 67.826180 -25.174000 -22.065260 # C GRA
372 372 1 0.000000 67.146179 -23.945999 -22.264259 # C GRA
373 373 1 0.000000 69.866180 -21.490000 -21.461260 # C GRA
374 374 1 0.000000 69.186180 -22.718000 -21.663260 # C GRA
375 375 1 0.000000 67.826180 -22.718000 -22.065260 # C GRA
376 376 1 0.000000 67.146179 -21.490000 -22.264259 # C GRA
377 377 1 0.000000 69.866180 -19.034000 -21.461260 # C GRA
378 378 1 0.000000 69.186180 -20.261999 -21.663260 # C GRA
379 379 1 0.000000 67.826180 -20.261999 -22.065260 # C GRA
380 380 1 0.000000 67.146179 -19.034000 -22.264259 # C GRA
381 381 1 0.000000 69.866180 -16.577999 -21.461260 # C GRA
382 382 1 0.000000 69.186180 -17.806000 -21.663260 # C GRA
383 383 1 0.000000 67.826180 -17.806000 -22.065260 # C GRA
384 384 1 0.000000 67.146179 -16.577999 -22.264259 # C GRA
385 385 1 0.000000 69.866180 -14.122000 -21.461260 # C GRA
386 386 1 0.000000 69.186180 -15.350000 -21.663260 # C GRA
387 387 1 0.000000 67.826180 -15.350000 -22.065260 # C GRA
388 388 1 0.000000 67.146179 -14.122000 -22.264259 # C GRA
389 389 1 0.000000 69.866180 -11.666000 -21.461260 # C GRA
390 390 1 0.000000 69.186180 -12.894000 -21.663260 # C GRA
391 391 1 0.000000 67.826180 -12.894000 -22.065260 # C GRA
392 392 1 0.000000 67.146179 -11.666000 -22.264259 # C GRA
393 393 1 0.000000 69.866180 -9.210000 -21.461260 # C GRA
394 394 1 0.000000 69.186180 -10.438000 -21.663260 # C GRA
395 395 1 0.000000 67.826180 -10.438000 -22.065260 # C GRA
396 396 1 0.000000 67.146179 -9.210000 -22.264259 # C GRA
397 397 1 0.000000 69.866180 -6.754000 -21.461260 # C GRA
398 398 1 0.000000 69.186180 -7.982000 -21.663260 # C GRA
399 399 1 0.000000 67.826180 -7.982000 -22.065260 # C GRA
400 400 1 0.000000 67.146179 -6.754000 -22.264259 # C GRA
401 401 1 0.000000 69.866180 -4.298000 -21.461260 # C GRA
402 402 1 0.000000 69.186180 -5.526000 -21.663260 # C GRA
403 403 1 0.000000 67.826180 -5.526000 -22.065260 # C GRA
404 404 1 0.000000 67.146179 -4.298000 -22.264259 # C GRA
405 405 1 0.000000 69.866180 -1.842000 -21.461260 # C GRA
406 406 1 0.000000 69.186180 -3.070000 -21.663260 # C GRA
407 407 1 0.000000 67.826180 -3.070000 -22.065260 # C GRA
408 408 1 0.000000 67.146179 -1.842000 -22.264259 # C GRA
409 409 1 0.000000 69.866180 0.614000 -21.461260 # C GRA
410 410 1 0.000000 69.186180 -0.614000 -21.663260 # C GRA
411 411 1 0.000000 67.826180 -0.614000 -22.065260 # C GRA
412 412 1 0.000000 67.146179 0.614000 -22.264259 # C GRA
413 413 1 0.000000 69.866180 3.070000 -21.461260 # C GRA
414 414 1 0.000000 69.186180 1.842000 -21.663260 # C GRA
415 415 1 0.000000 67.826180 1.842000 -22.065260 # C GRA
416 416 1 0.000000 67.146179 3.070000 -22.264259 # C GRA
417 417 1 0.000000 69.866180 5.526000 -21.461260 # C GRA
418 418 1 0.000000 69.186180 4.298000 -21.663260 # C GRA
419 419 1 0.000000 67.826180 4.298000 -22.065260 # C GRA
420 420 1 0.000000 67.146179 5.526000 -22.264259 # C GRA
421 421 1 0.000000 69.866180 7.982000 -21.461260 # C GRA
422 422 1 0.000000 69.186180 6.754000 -21.663260 # C GRA
423 423 1 0.000000 67.826180 6.754000 -22.065260 # C GRA
424 424 1 0.000000 67.146179 7.982000 -22.264259 # C GRA
425 425 1 0.000000 69.866180 10.438000 -21.461260 # C GRA
426 426 1 0.000000 69.186180 9.210000 -21.663260 # C GRA
427 427 1 0.000000 67.826180 9.210000 -22.065260 # C GRA
428 428 1 0.000000 67.146179 10.438000 -22.264259 # C GRA
429 429 1 0.000000 69.866180 12.894000 -21.461260 # C GRA
430 430 1 0.000000 69.186180 11.666000 -21.663260 # C GRA
431 431 1 0.000000 67.826180 11.666000 -22.065260 # C GRA
432 432 1 0.000000 67.146179 12.894000 -22.264259 # C GRA
433 433 1 0.000000 69.866180 15.350000 -21.461260 # C GRA
434 434 1 0.000000 69.186180 14.122000 -21.663260 # C GRA
435 435 1 0.000000 67.826180 14.122000 -22.065260 # C GRA
436 436 1 0.000000 67.146179 15.350000 -22.264259 # C GRA
437 437 1 0.000000 69.866180 17.806000 -21.461260 # C GRA
438 438 1 0.000000 69.186180 16.577999 -21.663260 # C GRA
439 439 1 0.000000 67.826180 16.577999 -22.065260 # C GRA
440 440 1 0.000000 67.146179 17.806000 -22.264259 # C GRA
441 441 1 0.000000 69.866180 20.261999 -21.461260 # C GRA
442 442 1 0.000000 69.186180 19.034000 -21.663260 # C GRA
443 443 1 0.000000 67.826180 19.034000 -22.065260 # C GRA
444 444 1 0.000000 67.146179 20.261999 -22.264259 # C GRA
445 445 1 0.000000 69.866180 22.718000 -21.461260 # C GRA
446 446 1 0.000000 69.186180 21.490000 -21.663260 # C GRA
447 447 1 0.000000 67.826180 21.490000 -22.065260 # C GRA
448 448 1 0.000000 67.146179 22.718000 -22.264259 # C GRA
449 449 1 0.000000 69.866180 25.174000 -21.461260 # C GRA
450 450 1 0.000000 69.186180 23.945999 -21.663260 # C GRA
451 451 1 0.000000 67.826180 23.945999 -22.065260 # C GRA
452 452 1 0.000000 67.146179 25.174000 -22.264259 # C GRA
453 453 1 0.000000 69.866180 27.631001 -21.461260 # C GRA
454 454 1 0.000000 69.186180 26.403000 -21.663260 # C GRA
455 455 1 0.000000 67.826180 26.403000 -22.065260 # C GRA
456 456 1 0.000000 67.146179 27.631001 -22.264259 # C GRA
457 457 1 0.000000 69.866180 30.087000 -21.461260 # C GRA
458 458 1 0.000000 69.186180 28.858999 -21.663260 # C GRA
459 459 1 0.000000 67.826180 28.858999 -22.065260 # C GRA
460 460 1 0.000000 67.146179 30.087000 -22.264259 # C GRA
461 461 1 0.000000 69.866180 32.542999 -21.461260 # C GRA
462 462 1 0.000000 69.186180 31.315001 -21.663260 # C GRA
463 463 1 0.000000 67.826180 31.315001 -22.065260 # C GRA
464 464 1 0.000000 67.146179 32.542999 -22.264259 # C GRA
465 465 1 0.000000 69.866180 34.999001 -21.461260 # C GRA
466 466 1 0.000000 69.186180 33.771000 -21.663260 # C GRA
467 467 1 0.000000 67.826180 33.771000 -22.065260 # C GRA
468 468 1 0.000000 67.146179 34.999001 -22.264259 # C GRA
469 469 1 0.000000 69.866180 37.455002 -21.461260 # C GRA
470 470 1 0.000000 69.186180 36.227001 -21.663260 # C GRA
471 471 1 0.000000 67.826180 36.227001 -22.065260 # C GRA
472 472 1 0.000000 67.146179 37.455002 -22.264259 # C GRA
473 473 1 0.000000 69.866180 39.910999 -21.461260 # C GRA
474 474 1 0.000000 69.186180 38.682999 -21.663260 # C GRA
475 475 1 0.000000 67.826180 38.682999 -22.065260 # C GRA
476 476 1 0.000000 67.146179 39.910999 -22.264259 # C GRA
477 477 1 0.000000 69.866180 42.367001 -21.461260 # C GRA
478 478 1 0.000000 69.186180 41.139000 -21.663260 # C GRA
479 479 1 0.000000 67.826180 41.139000 -22.065260 # C GRA
480 480 1 0.000000 67.146179 42.367001 -22.264259 # C GRA
481 481 1 0.000000 69.866180 44.823002 -21.461260 # C GRA
482 482 1 0.000000 69.186180 43.595001 -21.663260 # C GRA
483 483 1 0.000000 67.826180 43.595001 -22.065260 # C GRA
484 484 1 0.000000 67.146179 44.823002 -22.264259 # C GRA
485 485 1 0.000000 69.866180 47.278999 -21.461260 # C GRA
486 486 1 0.000000 69.186180 46.050999 -21.663260 # C GRA
487 487 1 0.000000 67.826180 46.050999 -22.065260 # C GRA
488 488 1 0.000000 67.146179 47.278999 -22.264259 # C GRA
489 489 1 0.000000 69.866180 49.735001 -21.461260 # C GRA
490 490 1 0.000000 69.186180 48.507000 -21.663260 # C GRA
491 491 1 0.000000 67.826180 48.507000 -22.065260 # C GRA
492 492 1 0.000000 67.146179 49.735001 -22.264259 # C GRA
493 493 1 0.000000 65.784180 -48.507000 -22.659260 # C GRA
494 494 1 0.000000 65.103180 -49.735001 -22.856260 # C GRA
495 495 1 0.000000 63.739182 -49.735001 -23.242260 # C GRA
496 496 1 0.000000 63.056183 -48.507000 -23.435261 # C GRA
497 497 1 0.000000 65.784180 -46.050999 -22.659260 # C GRA
498 498 1 0.000000 65.103180 -47.278999 -22.856260 # C GRA
499 499 1 0.000000 63.739182 -47.278999 -23.242260 # C GRA